<?xml version="1.0"?>
<VTKFile type="UnstructuredGrid" version="0.1" byte_order="LittleEndian">
  <UnstructuredGrid>
    <FieldData>
      <DataArray type="Float32" Name="TIME"  NumberOfTuples="1" format="ascii"> 2.0000000000 </DataArray>
      <DataArray type="Int32"   Name="STEP"  NumberOfTuples="1" format="ascii"> 200000 </DataArray>
    </FieldData>
    <Piece NumberOfPoints="11" NumberOfCells="11">
      <Points>
        <DataArray type="Float32" NumberOfComponents="3" format="ascii">
 0.0000000000 0.0000000000 0.0000000000 0.3999999809 0.0000000000 0.0001250919 0.7999998255 0.0000000000 0.0004793595 1.1999994385 0.0000000000 0.0010373386 1.5999987639 0.0000000000 0.0017735650 1.9999977795 0.0000000000 0.0026625745 2.3999964924 0.0000000000 0.0036789031 2.7999949339 0.0000000000 0.0047970870 3.1999931549 0.0000000000 0.0059916623 3.5999912208 0.0000000000 0.0072371655 3.9999892066 0.0000000000 0.0085081326
        </DataArray>
      </Points>
      <Cells>
        <DataArray type="Int32" Name="connectivity" format="ascii">
 0 1 2 3 4 5 6 7 8 9 10
        </DataArray>
        <DataArray type="Int32" Name="offsets" format="ascii">
 1 2 3 4 5 6 7 8 9 10 11
        </DataArray>
        <DataArray type="UInt8" Name="types" format="ascii">
 1 1 1 1 1 1 1 1 1 1 1
        </DataArray>
      </Cells>
      <PointData Scalars="radius">
        <DataArray type="Float32" Name="radius" format="ascii">
 0.2000000000 0.2000000000 0.2000000000 0.2000000000 0.2000000000 0.2000000000 0.2000000000 0.2000000000 0.2000000000 0.2000000000 0.2000000000
        </DataArray>
        <DataArray type="Float32" Name="pressure" format="ascii">
 0.0000000000 0.0000000000 0.0000000000 0.0000000000 0.0000000000 0.0000000000 0.0000000000 0.0000000000 0.0000000000 0.0000000000 0.0000000000
        </DataArray>
        <DataArray type="Int32" Name="clusterID" format="ascii">
 0 0 0 0 0 0 0 0 0 0 0
        </DataArray>
        <DataArray type="Float32" Name="velocity" NumberOfComponents="3" format="ascii">
 0.0000000000 0.0000000000 0.0000000000 -0.0000000005 0.0000000000 0.0000005537 -0.0000000021 0.0000000000 0.0000021940 -0.0000000075 0.0000000000 0.0000044993 -0.0000000136 0.0000000000 0.0000076594 -0.0000000219 0.0000000000 0.0000111992 -0.0000000328 0.0000000000 0.0000148640 -0.0000000421 0.0000000000 0.0000182845 -0.0000000518 0.0000000000 0.0000214703 -0.0000000579 0.0000000000 0.0000243924 -0.0000000674 0.0000000000 0.0000273448
        </DataArray>
        <DataArray type="Float32" Name="angularVelocity" NumberOfComponents="3" format="ascii">
 0.0000000000 0.0000000000 0.0000000000 0.0000000000 -0.0000027092 0.0000000000 0.0000000000 -0.0000049597 0.0000000000 0.0000000000 -0.0000067853 0.0000000000 0.0000000000 -0.0000086200 0.0000000000 0.0000000000 -0.0000091008 0.0000000000 0.0000000000 -0.0000088022 0.0000000000 0.0000000000 -0.0000082581 0.0000000000 0.0000000000 -0.0000073120 0.0000000000 0.0000000000 -0.0000071045 0.0000000000 0.0000000000 -0.0000077952 0.0000000000
        </DataArray>
        <DataArray type="Float32" Name="normal" NumberOfComponents="3" format="ascii">
 0.0000000000 0.0000000000 0.0000000000 0.0000000000 0.0000000000 0.0000000000 0.0000000000 0.0000000000 0.0000000000 0.0000000000 0.0000000000 0.0000000000 0.0000000000 0.0000000000 0.0000000000 0.0000000000 0.0000000000 0.0000000000 0.0000000000 0.0000000000 0.0000000000 0.0000000000 0.0000000000 0.0000000000 0.0000000000 0.0000000000 0.0000000000 0.0000000000 0.0000000000 0.0000000000 0.0000000000 0.0000000000 0.0000000000
        </DataArray>
      </PointData>
    </Piece>
  </UnstructuredGrid>
</VTKFile>
