<?xml version="1.0"?>
<VTKFile type="UnstructuredGrid" version="0.1" byte_order="LittleEndian">
  <UnstructuredGrid>
    <FieldData>
      <DataArray type="Float32" Name="TIME"  NumberOfTuples="1" format="ascii"> 3.0000000000 </DataArray>
      <DataArray type="Int32"   Name="STEP"  NumberOfTuples="1" format="ascii"> 300000 </DataArray>
    </FieldData>
    <Piece NumberOfPoints="11" NumberOfCells="11">
      <Points>
        <DataArray type="Float32" NumberOfComponents="3" format="ascii">
 0.0000000000 0.0000000000 0.0000000000 0.3999999809 0.0000000000 0.0001250955 0.7999998255 0.0000000000 0.0004793733 1.1999994385 0.0000000000 0.0010373687 1.5999987638 0.0000000000 0.0017736168 1.9999977794 0.0000000000 0.0026626527 2.3999964922 0.0000000000 0.0036790117 2.7999949336 0.0000000000 0.0047972290 3.1999931545 0.0000000000 0.0059918401 3.5999912202 0.0000000000 0.0072373802 3.9999892060 0.0000000000 0.0085083849
        </DataArray>
      </Points>
      <Cells>
        <DataArray type="Int32" Name="connectivity" format="ascii">
 0 1 2 3 4 5 6 7 8 9 10
        </DataArray>
        <DataArray type="Int32" Name="offsets" format="ascii">
 1 2 3 4 5 6 7 8 9 10 11
        </DataArray>
        <DataArray type="UInt8" Name="types" format="ascii">
 1 1 1 1 1 1 1 1 1 1 1
        </DataArray>
      </Cells>
      <PointData Scalars="radius">
        <DataArray type="Float32" Name="radius" format="ascii">
 0.2000000000 0.2000000000 0.2000000000 0.2000000000 0.2000000000 0.2000000000 0.2000000000 0.2000000000 0.2000000000 0.2000000000 0.2000000000
        </DataArray>
        <DataArray type="Float32" Name="pressure" format="ascii">
 0.0000000000 0.0000000000 0.0000000000 0.0000000000 0.0000000000 0.0000000000 0.0000000000 0.0000000000 0.0000000000 0.0000000000 0.0000000000
        </DataArray>
        <DataArray type="Int32" Name="clusterID" format="ascii">
 0 0 0 0 0 0 0 0 0 0 0
        </DataArray>
        <DataArray type="Float32" Name="velocity" NumberOfComponents="3" format="ascii">
 0.0000000000 0.0000000000 0.0000000000 0.0000000000 0.0000000000 -0.0000000055 0.0000000000 0.0000000000 -0.0000000200 0.0000000000 0.0000000000 -0.0000000418 0.0000000001 0.0000000000 -0.0000000694 0.0000000002 0.0000000000 -0.0000000978 0.0000000002 0.0000000000 -0.0000001269 0.0000000003 0.0000000000 -0.0000001534 0.0000000004 0.0000000000 -0.0000001801 0.0000000005 0.0000000000 -0.0000002067 0.0000000005 0.0000000000 -0.0000002313
        </DataArray>
        <DataArray type="Float32" Name="angularVelocity" NumberOfComponents="3" format="ascii">
 0.0000000000 0.0000000000 0.0000000000 0.0000000000 0.0000000269 0.0000000000 0.0000000000 0.0000000465 0.0000000000 0.0000000000 0.0000000629 0.0000000000 0.0000000000 0.0000000702 0.0000000000 0.0000000000 0.0000000727 0.0000000000 0.0000000000 0.0000000703 0.0000000000 0.0000000000 0.0000000668 0.0000000000 0.0000000000 0.0000000671 0.0000000000 0.0000000000 0.0000000638 0.0000000000 0.0000000000 0.0000000585 0.0000000000
        </DataArray>
        <DataArray type="Float32" Name="normal" NumberOfComponents="3" format="ascii">
 0.0000000000 0.0000000000 0.0000000000 0.0000000000 0.0000000000 0.0000000000 0.0000000000 0.0000000000 0.0000000000 0.0000000000 0.0000000000 0.0000000000 0.0000000000 0.0000000000 0.0000000000 0.0000000000 0.0000000000 0.0000000000 0.0000000000 0.0000000000 0.0000000000 0.0000000000 0.0000000000 0.0000000000 0.0000000000 0.0000000000 0.0000000000 0.0000000000 0.0000000000 0.0000000000 0.0000000000 0.0000000000 0.0000000000
        </DataArray>
      </PointData>
    </Piece>
  </UnstructuredGrid>
</VTKFile>
