<?xml version="1.0"?>
<VTKFile type="UnstructuredGrid" version="0.1" byte_order="LittleEndian">
  <UnstructuredGrid>
    <FieldData>
      <DataArray type="Float32" Name="TIME"  NumberOfTuples="1" format="ascii"> 1.0000000000 </DataArray>
      <DataArray type="Int32"   Name="STEP"  NumberOfTuples="1" format="ascii"> 100000 </DataArray>
    </FieldData>
    <Piece NumberOfPoints="11" NumberOfCells="11">
      <Points>
        <DataArray type="Float32" NumberOfComponents="3" format="ascii">
 0.0000000000 0.0000000000 0.0000000000 0.3999999807 0.0000000000 0.0001257980 0.7999998234 0.0000000000 0.0004820854 1.1999994320 0.0000000000 0.0010432697 1.5999987495 0.0000000000 0.0017837493 1.9999977537 0.0000000000 0.0026779139 2.3999964515 0.0000000000 0.0037001336 2.7999948750 0.0000000000 0.0048247722 3.1999930755 0.0000000000 0.0060261994 3.5999911192 0.0000000000 0.0072787897 3.9999890822 0.0000000000 0.0085569402
        </DataArray>
      </Points>
      <Cells>
        <DataArray type="Int32" Name="connectivity" format="ascii">
 0 1 2 3 4 5 6 7 8 9 10
        </DataArray>
        <DataArray type="Int32" Name="offsets" format="ascii">
 1 2 3 4 5 6 7 8 9 10 11
        </DataArray>
        <DataArray type="UInt8" Name="types" format="ascii">
 1 1 1 1 1 1 1 1 1 1 1
        </DataArray>
      </Cells>
      <PointData Scalars="radius">
        <DataArray type="Float32" Name="radius" format="ascii">
 0.2000000000 0.2000000000 0.2000000000 0.2000000000 0.2000000000 0.2000000000 0.2000000000 0.2000000000 0.2000000000 0.2000000000 0.2000000000
        </DataArray>
        <DataArray type="Float32" Name="pressure" format="ascii">
 0.0000000000 0.0000000000 0.0000000000 0.0000000000 0.0000000000 0.0000000000 0.0000000000 0.0000000000 0.0000000000 0.0000000000 0.0000000000
        </DataArray>
        <DataArray type="Int32" Name="clusterID" format="ascii">
 0 0 0 0 0 0 0 0 0 0 0
        </DataArray>
        <DataArray type="Float32" Name="velocity" NumberOfComponents="3" format="ascii">
 0.0000000000 0.0000000000 0.0000000000 0.0000001696 0.0000000000 -0.0000359507 0.0000001186 0.0000000000 -0.0001561975 0.0000005909 0.0000000000 -0.0003793772 0.0000010606 0.0000000000 -0.0006416395 0.0000016505 0.0000000000 -0.0008996876 0.0000023042 0.0000000000 -0.0011741609 0.0000032421 0.0000000000 -0.0014558883 0.0000040735 0.0000000000 -0.0016999497 0.0000046666 0.0000000000 -0.0019563938 0.0000057875 0.0000000000 -0.0021995173
        </DataArray>
        <DataArray type="Float32" Name="angularVelocity" NumberOfComponents="3" format="ascii">
 0.0000000000 0.0000000000 0.0000000000 0.0000000000 0.0001711503 0.0000000000 0.0000000000 0.0004590677 0.0000000000 0.0000000000 0.0006231161 0.0000000000 0.0000000000 0.0006239195 0.0000000000 0.0000000000 0.0006647314 0.0000000000 0.0000000000 0.0007366112 0.0000000000 0.0000000000 0.0006482460 0.0000000000 0.0000000000 0.0006559192 0.0000000000 0.0000000000 0.0006189356 0.0000000000 0.0000000000 0.0005907265 0.0000000000
        </DataArray>
        <DataArray type="Float32" Name="normal" NumberOfComponents="3" format="ascii">
 0.0000000000 0.0000000000 0.0000000000 0.0000000000 0.0000000000 0.0000000000 0.0000000000 0.0000000000 0.0000000000 0.0000000000 0.0000000000 0.0000000000 0.0000000000 0.0000000000 0.0000000000 0.0000000000 0.0000000000 0.0000000000 0.0000000000 0.0000000000 0.0000000000 0.0000000000 0.0000000000 0.0000000000 0.0000000000 0.0000000000 0.0000000000 0.0000000000 0.0000000000 0.0000000000 0.0000000000 0.0000000000 0.0000000000
        </DataArray>
      </PointData>
    </Piece>
  </UnstructuredGrid>
</VTKFile>
